+ 0.5 0 2 tcp 40 ------- 1 0.0 2.0 0 0
- 0.5 0 2 tcp 40 ------- 1 0.0 2.0 0 0
r 0.5132 0 2 tcp 40 ------- 1 0.0 2.0 0 0
+ 0.5132 2 0 ack 40 ------- 1 2.0 0.0 0 1
- 0.5132 2 0 ack 40 ------- 1 2.0 0.0 0 1
r 0.5264 2 0 ack 40 ------- 1 2.0 0.0 0 1
+ 0.5264 0 2 tcp 1040 ------- 1 0.0 2.0 1 2
- 0.5264 0 2 tcp 1040 ------- 1 0.0 2.0 1 2
+ 0.5264 0 2 tcp 1040 ------- 1 0.0 2.0 2 3
- 0.6096 0 2 tcp 1040 ------- 1 0.0 2.0 2 3
r 0.6196 0 2 tcp 1040 ------- 1 0.0 2.0 1 2
+ 0.6196 2 0 ack 40 ------- 1 2.0 0.0 1 4
- 0.6196 2 0 ack 40 ------- 1 2.0 0.0 1 4
r 0.6328 2 0 ack 40 ------- 1 2.0 0.0 1 4
+ 0.6328 0 2 tcp 1040 ------- 1 0.0 2.0 3 5
+ 0.6328 0 2 tcp 1040 ------- 1 0.0 2.0 4 6
- 0.6928 0 2 tcp 1040 ------- 1 0.0 2.0 3 5
r 0.7028 0 2 tcp 1040 ------- 1 0.0 2.0 2 3
+ 0.7028 2 0 ack 40 ------- 1 2.0 0.0 2 7
- 0.7028 2 0 ack 40 ------- 1 2.0 0.0 2 7
r 0.716 2 0 ack 40 ------- 1 2.0 0.0 2 7
+ 0.716 0 2 tcp 1040 ------- 1 0.0 2.0 5 8
+ 0.716 0 2 tcp 1040 ------- 1 0.0 2.0 6 9
- 0.776 0 2 tcp 1040 ------- 1 0.0 2.0 4 6
r 0.786 0 2 tcp 1040 ------- 1 0.0 2.0 3 5
+ 0.786 2 0 ack 40 ------- 1 2.0 0.0 3 10
- 0.786 2 0 ack 40 ------- 1 2.0 0.0 3 10
r 0.7992 2 0 ack 40 ------- 1 2.0 0.0 3 10
+ 0.7992 0 2 tcp 1040 ------- 1 0.0 2.0 7 11
+ 0.7992 0 2 tcp 1040 ------- 1 0.0 2.0 8 12
- 0.8592 0 2 tcp 1040 ------- 1 0.0 2.0 5 8
r 0.8692 0 2 tcp 1040 ------- 1 0.0 2.0 4 6
+ 0.8692 2 0 ack 40 ------- 1 2.0 0.0 4 13
- 0.8692 2 0 ack 40 ------- 1 2.0 0.0 4 13
r 0.8824 2 0 ack 40 ------- 1 2.0 0.0 4 13
+ 0.8824 0 2 tcp 1040 ------- 1 0.0 2.0 9 14
+ 0.8824 0 2 tcp 1040 ------- 1 0.0 2.0 10 15
- 0.9424 0 2 tcp 1040 ------- 1 0.0 2.0 6 9
r 0.9524 0 2 tcp 1040 ------- 1 0.0 2.0 5 8
+ 0.9524 2 0 ack 40 ------- 1 2.0 0.0 5 16
- 0.9524 2 0 ack 40 ------- 1 2.0 0.0 5 16
r 0.9656 2 0 ack 40 ------- 1 2.0 0.0 5 16
+ 0.9656 0 2 tcp 1040 ------- 1 0.0 2.0 11 17
+ 0.9656 0 2 tcp 1040 ------- 1 0.0 2.0 12 18
- 1.0256 0 2 tcp 1040 ------- 1 0.0 2.0 7 11
r 1.0356 0 2 tcp 1040 ------- 1 0.0 2.0 6 9
+ 1.0356 2 0 ack 40 ------- 1 2.0 0.0 6 19
- 1.0356 2 0 ack 40 ------- 1 2.0 0.0 6 19
r 1.0488 2 0 ack 40 ------- 1 2.0 0.0 6 19
+ 1.0488 0 2 tcp 1040 ------- 1 0.0 2.0 13 20
+ 1.0488 0 2 tcp 1040 ------- 1 0.0 2.0 14 21
- 1.1088 0 2 tcp 1040 ------- 1 0.0 2.0 8 12
r 1.1188 0 2 tcp 1040 ------- 1 0.0 2.0 7 11
+ 1.1188 2 0 ack 40 ------- 1 2.0 0.0 7 22
- 1.1188 2 0 ack 40 ------- 1 2.0 0.0 7 22
r 1.132 2 0 ack 40 ------- 1 2.0 0.0 7 22
+ 1.132 0 2 tcp 1040 ------- 1 0.0 2.0 15 23
+ 1.132 0 2 tcp 1040 ------- 1 0.0 2.0 16 24
- 1.192 0 2 tcp 1040 ------- 1 0.0 2.0 9 14
r 1.202 0 2 tcp 1040 ------- 1 0.0 2.0 8 12
+ 1.202 2 0 ack 40 ------- 1 2.0 0.0 8 25
- 1.202 2 0 ack 40 ------- 1 2.0 0.0 8 25
r 1.2152 2 0 ack 40 ------- 1 2.0 0.0 8 25
+ 1.2152 0 2 tcp 1040 ------- 1 0.0 2.0 17 26
+ 1.2152 0 2 tcp 1040 ------- 1 0.0 2.0 18 27
- 1.2752 0 2 tcp 1040 ------- 1 0.0 2.0 10 15
r 1.2852 0 2 tcp 1040 ------- 1 0.0 2.0 9 14
+ 1.2852 2 0 ack 40 ------- 1 2.0 0.0 9 28
- 1.2852 2 0 ack 40 ------- 1 2.0 0.0 9 28
r 1.2984 2 0 ack 40 ------- 1 2.0 0.0 9 28
+ 1.2984 0 2 tcp 1040 ------- 1 0.0 2.0 19 29
+ 1.2984 0 2 tcp 1040 ------- 1 0.0 2.0 20 30
d 1.2984 0 2 tcp 1040 ------- 1 0.0 2.0 20 30
- 1.3584 0 2 tcp 1040 ------- 1 0.0 2.0 11 17
r 1.3684 0 2 tcp 1040 ------- 1 0.0 2.0 10 15
+ 1.3684 2 0 ack 40 ------- 1 2.0 0.0 10 31
- 1.3684 2 0 ack 40 ------- 1 2.0 0.0 10 31
r 1.3816 2 0 ack 40 ------- 1 2.0 0.0 10 31
+ 1.3816 0 2 tcp 1040 ------- 1 0.0 2.0 21 32
+ 1.3816 0 2 tcp 1040 ------- 1 0.0 2.0 22 33
d 1.3816 0 2 tcp 1040 ------- 1 0.0 2.0 22 33
- 1.4416 0 2 tcp 1040 ------- 1 0.0 2.0 12 18
r 1.4516 0 2 tcp 1040 ------- 1 0.0 2.0 11 17
+ 1.4516 2 0 ack 40 ------- 1 2.0 0.0 11 34
- 1.4516 2 0 ack 40 ------- 1 2.0 0.0 11 34
r 1.4648 2 0 ack 40 ------- 1 2.0 0.0 11 34
+ 1.4648 0 2 tcp 1040 ------- 1 0.0 2.0 23 35
+ 1.4648 0 2 tcp 1040 ------- 1 0.0 2.0 24 36
d 1.4648 0 2 tcp 1040 ------- 1 0.0 2.0 24 36
+ 1.5 2 1 tcp 40 ------- 2 2.1 1.0 0 37
- 1.5 2 1 tcp 40 ------- 2 2.1 1.0 0 37
+ 1.5 1 0 tcp 40 ------- 3 1.1 0.1 0 38
- 1.5 1 0 tcp 40 ------- 3 1.1 0.1 0 38
- 1.5248 0 2 tcp 1040 ------- 1 0.0 2.0 13 20
r 1.5348 0 2 tcp 1040 ------- 1 0.0 2.0 12 18
+ 1.5348 2 0 ack 40 ------- 1 2.0 0.0 12 39
- 1.5348 2 0 ack 40 ------- 1 2.0 0.0 12 39
r 1.537 2 1 tcp 40 ------- 2 2.1 1.0 0 37
+ 1.537 1 2 ack 40 ------- 2 1.0 2.1 0 40
- 1.537 1 2 ack 40 ------- 2 1.0 2.1 0 40
r 1.548 2 0 ack 40 ------- 1 2.0 0.0 12 39
+ 1.548 0 2 tcp 1040 ------- 1 0.0 2.0 25 41
+ 1.548 0 2 tcp 1040 ------- 1 0.0 2.0 26 42
d 1.548 0 2 tcp 1040 ------- 1 0.0 2.0 26 42
r 1.55032 1 0 tcp 40 ------- 3 1.1 0.1 0 38
+ 1.55032 0 1 ack 40 ------- 3 0.1 1.1 0 43
- 1.55032 0 1 ack 40 ------- 3 0.1 1.1 0 43
r 1.574 1 2 ack 40 ------- 2 1.0 2.1 0 40
+ 1.574 2 1 tcp 1040 ------- 2 2.1 1.0 1 44
- 1.574 2 1 tcp 1040 ------- 2 2.1 1.0 1 44
+ 1.574 2 1 tcp 1040 ------- 2 2.1 1.0 2 45
r 1.60064 0 1 ack 40 ------- 3 0.1 1.1 0 43
+ 1.60064 1 0 tcp 1040 ------- 3 1.1 0.1 1 46
- 1.60064 1 0 tcp 1040 ------- 3 1.1 0.1 1 46
+ 1.60064 1 0 tcp 1040 ------- 3 1.1 0.1 2 47
- 1.608 0 2 tcp 1040 ------- 1 0.0 2.0 14 21
- 1.60896 1 0 tcp 1040 ------- 3 1.1 0.1 2 47
r 1.618 0 2 tcp 1040 ------- 1 0.0 2.0 13 20
+ 1.618 2 0 ack 40 ------- 1 2.0 0.0 13 48
- 1.618 2 0 ack 40 ------- 1 2.0 0.0 13 48
r 1.6312 2 0 ack 40 ------- 1 2.0 0.0 13 48
+ 1.6312 0 2 tcp 1040 ------- 1 0.0 2.0 27 49
+ 1.6312 0 2 tcp 1040 ------- 1 0.0 2.0 28 50
d 1.6312 0 2 tcp 1040 ------- 1 0.0 2.0 28 50
r 1.65896 1 0 tcp 1040 ------- 3 1.1 0.1 1 46
+ 1.65896 0 1 ack 40 ------- 3 0.1 1.1 1 51
- 1.65896 0 1 ack 40 ------- 3 0.1 1.1 1 51
r 1.66728 1 0 tcp 1040 ------- 3 1.1 0.1 2 47
+ 1.66728 0 1 ack 40 ------- 3 0.1 1.1 2 52
- 1.66728 0 1 ack 40 ------- 3 0.1 1.1 2 52
- 1.6912 0 2 tcp 1040 ------- 1 0.0 2.0 15 23
r 1.7012 0 2 tcp 1040 ------- 1 0.0 2.0 14 21
+ 1.7012 2 0 ack 40 ------- 1 2.0 0.0 14 53
- 1.7012 2 0 ack 40 ------- 1 2.0 0.0 14 53
r 1.70928 0 1 ack 40 ------- 3 0.1 1.1 1 51
+ 1.70928 1 0 tcp 1040 ------- 3 1.1 0.1 3 54
- 1.70928 1 0 tcp 1040 ------- 3 1.1 0.1 3 54
+ 1.70928 1 0 tcp 1040 ------- 3 1.1 0.1 4 55
r 1.7144 2 0 ack 40 ------- 1 2.0 0.0 14 53
+ 1.7144 0 2 tcp 1040 ------- 1 0.0 2.0 29 56
+ 1.7144 0 2 tcp 1040 ------- 1 0.0 2.0 30 57
d 1.7144 0 2 tcp 1040 ------- 1 0.0 2.0 30 57
r 1.7176 0 1 ack 40 ------- 3 0.1 1.1 2 52
+ 1.7176 1 0 tcp 1040 ------- 3 1.1 0.1 5 58
+ 1.7176 1 0 tcp 1040 ------- 3 1.1 0.1 6 59
- 1.7176 1 0 tcp 1040 ------- 3 1.1 0.1 4 55
- 1.72592 1 0 tcp 1040 ------- 3 1.1 0.1 5 58
- 1.73424 1 0 tcp 1040 ------- 3 1.1 0.1 6 59
r 1.7676 1 0 tcp 1040 ------- 3 1.1 0.1 3 54
+ 1.7676 0 1 ack 40 ------- 3 0.1 1.1 3 60
- 1.7676 0 1 ack 40 ------- 3 0.1 1.1 3 60
- 1.7744 0 2 tcp 1040 ------- 1 0.0 2.0 16 24
r 1.77592 1 0 tcp 1040 ------- 3 1.1 0.1 4 55
+ 1.77592 0 1 ack 40 ------- 3 0.1 1.1 4 61
- 1.77592 0 1 ack 40 ------- 3 0.1 1.1 4 61
r 1.78424 1 0 tcp 1040 ------- 3 1.1 0.1 5 58
+ 1.78424 0 1 ack 40 ------- 3 0.1 1.1 5 62
- 1.78424 0 1 ack 40 ------- 3 0.1 1.1 5 62
r 1.7844 0 2 tcp 1040 ------- 1 0.0 2.0 15 23
+ 1.7844 2 0 ack 40 ------- 1 2.0 0.0 15 63
- 1.7844 2 0 ack 40 ------- 1 2.0 0.0 15 63
r 1.79256 1 0 tcp 1040 ------- 3 1.1 0.1 6 59
+ 1.79256 0 1 ack 40 ------- 3 0.1 1.1 6 64
- 1.79256 0 1 ack 40 ------- 3 0.1 1.1 6 64
r 1.7976 2 0 ack 40 ------- 1 2.0 0.0 15 63
+ 1.7976 0 2 tcp 1040 ------- 1 0.0 2.0 31 65
+ 1.7976 0 2 tcp 1040 ------- 1 0.0 2.0 32 66
d 1.7976 0 2 tcp 1040 ------- 1 0.0 2.0 32 66
+ 1.814 2 1 tcp 1040 ---A--- 2 2.1 1.0 1 67
r 1.81792 0 1 ack 40 ------- 3 0.1 1.1 3 60
+ 1.81792 1 0 tcp 1040 ------- 3 1.1 0.1 7 68
- 1.81792 1 0 tcp 1040 ------- 3 1.1 0.1 7 68
+ 1.81792 1 0 tcp 1040 ------- 3 1.1 0.1 8 69
r 1.82624 0 1 ack 40 ------- 3 0.1 1.1 4 61
+ 1.82624 1 0 tcp 1040 ------- 3 1.1 0.1 9 70
+ 1.82624 1 0 tcp 1040 ------- 3 1.1 0.1 10 71
- 1.82624 1 0 tcp 1040 ------- 3 1.1 0.1 8 69
r 1.83456 0 1 ack 40 ------- 3 0.1 1.1 5 62
+ 1.83456 1 0 tcp 1040 ------- 3 1.1 0.1 11 72
+ 1.83456 1 0 tcp 1040 ------- 3 1.1 0.1 12 73
- 1.83456 1 0 tcp 1040 ------- 3 1.1 0.1 9 70
r 1.84288 0 1 ack 40 ------- 3 0.1 1.1 6 64
+ 1.84288 1 0 tcp 1040 ------- 3 1.1 0.1 13 74
+ 1.84288 1 0 tcp 1040 ------- 3 1.1 0.1 14 75
- 1.84288 1 0 tcp 1040 ------- 3 1.1 0.1 10 71
- 1.8512 1 0 tcp 1040 ------- 3 1.1 0.1 11 72
- 1.8576 0 2 tcp 1040 ------- 1 0.0 2.0 17 26
- 1.85952 1 0 tcp 1040 ------- 3 1.1 0.1 12 73
r 1.8676 0 2 tcp 1040 ------- 1 0.0 2.0 16 24
+ 1.8676 2 0 ack 40 ------- 1 2.0 0.0 16 76
- 1.8676 2 0 ack 40 ------- 1 2.0 0.0 16 76
- 1.86784 1 0 tcp 1040 ------- 3 1.1 0.1 13 74
- 1.87616 1 0 tcp 1040 ------- 3 1.1 0.1 14 75
r 1.87624 1 0 tcp 1040 ------- 3 1.1 0.1 7 68
+ 1.87624 0 1 ack 40 ------- 3 0.1 1.1 7 77
- 1.87624 0 1 ack 40 ------- 3 0.1 1.1 7 77
r 1.8808 2 0 ack 40 ------- 1 2.0 0.0 16 76
+ 1.8808 0 2 tcp 1040 ------- 1 0.0 2.0 33 78
+ 1.8808 0 2 tcp 1040 ------- 1 0.0 2.0 34 79
d 1.8808 0 2 tcp 1040 ------- 1 0.0 2.0 34 79
r 1.88456 1 0 tcp 1040 ------- 3 1.1 0.1 8 69
+ 1.88456 0 1 ack 40 ------- 3 0.1 1.1 8 80
- 1.88456 0 1 ack 40 ------- 3 0.1 1.1 8 80
r 1.89288 1 0 tcp 1040 ------- 3 1.1 0.1 9 70
+ 1.89288 0 1 ack 40 ------- 3 0.1 1.1 9 81
- 1.89288 0 1 ack 40 ------- 3 0.1 1.1 9 81
r 1.9012 1 0 tcp 1040 ------- 3 1.1 0.1 10 71
+ 1.9012 0 1 ack 40 ------- 3 0.1 1.1 10 82
- 1.9012 0 1 ack 40 ------- 3 0.1 1.1 10 82
r 1.90952 1 0 tcp 1040 ------- 3 1.1 0.1 11 72
+ 1.90952 0 1 ack 40 ------- 3 0.1 1.1 11 83
- 1.90952 0 1 ack 40 ------- 3 0.1 1.1 11 83
r 1.91784 1 0 tcp 1040 ------- 3 1.1 0.1 12 73
+ 1.91784 0 1 ack 40 ------- 3 0.1 1.1 12 84
- 1.91784 0 1 ack 40 ------- 3 0.1 1.1 12 84
r 1.92616 1 0 tcp 1040 ------- 3 1.1 0.1 13 74
+ 1.92616 0 1 ack 40 ------- 3 0.1 1.1 13 85
- 1.92616 0 1 ack 40 ------- 3 0.1 1.1 13 85
r 1.92656 0 1 ack 40 ------- 3 0.1 1.1 7 77
+ 1.92656 1 0 tcp 1040 ------- 3 1.1 0.1 15 86
- 1.92656 1 0 tcp 1040 ------- 3 1.1 0.1 15 86
+ 1.92656 1 0 tcp 1040 ------- 3 1.1 0.1 16 87
r 1.93448 1 0 tcp 1040 ------- 3 1.1 0.1 14 75
+ 1.93448 0 1 ack 40 ------- 3 0.1 1.1 14 88
- 1.93448 0 1 ack 40 ------- 3 0.1 1.1 14 88
r 1.93488 0 1 ack 40 ------- 3 0.1 1.1 8 80
+ 1.93488 1 0 tcp 1040 ------- 3 1.1 0.1 17 89
+ 1.93488 1 0 tcp 1040 ------- 3 1.1 0.1 18 90
- 1.93488 1 0 tcp 1040 ------- 3 1.1 0.1 16 87
- 1.9408 0 2 tcp 1040 ------- 1 0.0 2.0 18 27
r 1.9432 0 1 ack 40 ------- 3 0.1 1.1 9 81
+ 1.9432 1 0 tcp 1040 ------- 3 1.1 0.1 19 91
+ 1.9432 1 0 tcp 1040 ------- 3 1.1 0.1 20 92
- 1.9432 1 0 tcp 1040 ------- 3 1.1 0.1 17 89
r 1.9508 0 2 tcp 1040 ------- 1 0.0 2.0 17 26
+ 1.9508 2 0 ack 40 ------- 1 2.0 0.0 17 93
- 1.9508 2 0 ack 40 ------- 1 2.0 0.0 17 93
r 1.95152 0 1 ack 40 ------- 3 0.1 1.1 10 82
+ 1.95152 1 0 tcp 1040 ------- 3 1.1 0.1 21 94
+ 1.95152 1 0 tcp 1040 ------- 3 1.1 0.1 22 95
- 1.95152 1 0 tcp 1040 ------- 3 1.1 0.1 18 90
r 1.95984 0 1 ack 40 ------- 3 0.1 1.1 11 83
+ 1.95984 1 0 tcp 1040 ------- 3 1.1 0.1 23 96
+ 1.95984 1 0 tcp 1040 ------- 3 1.1 0.1 24 97
- 1.95984 1 0 tcp 1040 ------- 3 1.1 0.1 19 91
r 1.964 2 0 ack 40 ------- 1 2.0 0.0 17 93
+ 1.964 0 2 tcp 1040 ------- 1 0.0 2.0 35 98
+ 1.964 0 2 tcp 1040 ------- 1 0.0 2.0 36 99
d 1.964 0 2 tcp 1040 ------- 1 0.0 2.0 36 99
r 1.96816 0 1 ack 40 ------- 3 0.1 1.1 12 84
+ 1.96816 1 0 tcp 1040 ------- 3 1.1 0.1 25 100
+ 1.96816 1 0 tcp 1040 ------- 3 1.1 0.1 26 101
- 1.96816 1 0 tcp 1040 ------- 3 1.1 0.1 20 92
r 1.97648 0 1 ack 40 ------- 3 0.1 1.1 13 85
+ 1.97648 1 0 tcp 1040 ------- 3 1.1 0.1 27 102
+ 1.97648 1 0 tcp 1040 ------- 3 1.1 0.1 28 103
- 1.97648 1 0 tcp 1040 ------- 3 1.1 0.1 21 94
r 1.9848 0 1 ack 40 ------- 3 0.1 1.1 14 88
+ 1.9848 1 0 tcp 1040 ------- 3 1.1 0.1 29 104
+ 1.9848 1 0 tcp 1040 ------- 3 1.1 0.1 30 105
- 1.9848 1 0 tcp 1040 ------- 3 1.1 0.1 22 95
r 1.98488 1 0 tcp 1040 ------- 3 1.1 0.1 15 86
+ 1.98488 0 1 ack 40 ------- 3 0.1 1.1 15 106
- 1.98488 0 1 ack 40 ------- 3 0.1 1.1 15 106
- 1.99312 1 0 tcp 1040 ------- 3 1.1 0.1 23 96
r 1.9932 1 0 tcp 1040 ------- 3 1.1 0.1 16 87
+ 1.9932 0 1 ack 40 ------- 3 0.1 1.1 16 107
- 1.9932 0 1 ack 40 ------- 3 0.1 1.1 16 107
- 2.00144 1 0 tcp 1040 ------- 3 1.1 0.1 24 97
r 2.00152 1 0 tcp 1040 ------- 3 1.1 0.1 17 89
+ 2.00152 0 1 ack 40 ------- 3 0.1 1.1 17 108
- 2.00152 0 1 ack 40 ------- 3 0.1 1.1 17 108
- 2.00976 1 0 tcp 1040 ------- 3 1.1 0.1 25 100
r 2.00984 1 0 tcp 1040 ------- 3 1.1 0.1 18 90
+ 2.00984 0 1 ack 40 ------- 3 0.1 1.1 18 109
- 2.00984 0 1 ack 40 ------- 3 0.1 1.1 18 109
- 2.01808 1 0 tcp 1040 ------- 3 1.1 0.1 26 101
r 2.01816 1 0 tcp 1040 ------- 3 1.1 0.1 19 91
+ 2.01816 0 1 ack 40 ------- 3 0.1 1.1 19 110
- 2.01816 0 1 ack 40 ------- 3 0.1 1.1 19 110
- 2.024 0 2 tcp 1040 ------- 1 0.0 2.0 19 29
- 2.0264 1 0 tcp 1040 ------- 3 1.1 0.1 27 102
r 2.02648 1 0 tcp 1040 ------- 3 1.1 0.1 20 92
+ 2.02648 0 1 ack 40 ------- 3 0.1 1.1 20 111
- 2.02648 0 1 ack 40 ------- 3 0.1 1.1 20 111
r 2.034 0 2 tcp 1040 ------- 1 0.0 2.0 18 27
+ 2.034 2 0 ack 40 ------- 1 2.0 0.0 18 112
- 2.034 2 0 ack 40 ------- 1 2.0 0.0 18 112
- 2.03472 1 0 tcp 1040 ------- 3 1.1 0.1 28 103
r 2.0348 1 0 tcp 1040 ------- 3 1.1 0.1 21 94
+ 2.0348 0 1 ack 40 ------- 3 0.1 1.1 21 113
- 2.0348 0 1 ack 40 ------- 3 0.1 1.1 21 113
r 2.0352 0 1 ack 40 ------- 3 0.1 1.1 15 106
+ 2.0352 1 0 tcp 1040 ------- 3 1.1 0.1 31 114
+ 2.0352 1 0 tcp 1040 ------- 3 1.1 0.1 32 115
- 2.04304 1 0 tcp 1040 ------- 3 1.1 0.1 29 104
r 2.04312 1 0 tcp 1040 ------- 3 1.1 0.1 22 95
+ 2.04312 0 1 ack 40 ------- 3 0.1 1.1 22 116
- 2.04312 0 1 ack 40 ------- 3 0.1 1.1 22 116
r 2.04352 0 1 ack 40 ------- 3 0.1 1.1 16 107
+ 2.04352 1 0 tcp 1040 ------- 3 1.1 0.1 33 117
+ 2.04352 1 0 tcp 1040 ------- 3 1.1 0.1 34 118
r 2.0472 2 0 ack 40 ------- 1 2.0 0.0 18 112
+ 2.0472 0 2 tcp 1040 ------- 1 0.0 2.0 37 119
+ 2.0472 0 2 tcp 1040 ------- 1 0.0 2.0 38 120
d 2.0472 0 2 tcp 1040 ------- 1 0.0 2.0 38 120
- 2.05136 1 0 tcp 1040 ------- 3 1.1 0.1 30 105
r 2.05144 1 0 tcp 1040 ------- 3 1.1 0.1 23 96
+ 2.05144 0 1 ack 40 ------- 3 0.1 1.1 23 121
- 2.05144 0 1 ack 40 ------- 3 0.1 1.1 23 121
r 2.05184 0 1 ack 40 ------- 3 0.1 1.1 17 108
+ 2.05184 1 0 tcp 1040 ------- 3 1.1 0.1 35 122
+ 2.05184 1 0 tcp 1040 ------- 3 1.1 0.1 36 123
- 2.05968 1 0 tcp 1040 ------- 3 1.1 0.1 31 114
r 2.05976 1 0 tcp 1040 ------- 3 1.1 0.1 24 97
+ 2.05976 0 1 ack 40 ------- 3 0.1 1.1 24 124
- 2.05976 0 1 ack 40 ------- 3 0.1 1.1 24 124
r 2.06016 0 1 ack 40 ------- 3 0.1 1.1 18 109
+ 2.06016 1 0 tcp 1040 ------- 3 1.1 0.1 37 125
+ 2.06016 1 0 tcp 1040 ------- 3 1.1 0.1 38 126
- 2.068 1 0 tcp 1040 ------- 3 1.1 0.1 32 115
r 2.06808 1 0 tcp 1040 ------- 3 1.1 0.1 25 100
+ 2.06808 0 1 ack 40 ------- 3 0.1 1.1 25 127
- 2.06808 0 1 ack 40 ------- 3 0.1 1.1 25 127
r 2.06848 0 1 ack 40 ------- 3 0.1 1.1 19 110
+ 2.06848 1 0 tcp 1040 ------- 3 1.1 0.1 39 128
- 2.07632 1 0 tcp 1040 ------- 3 1.1 0.1 33 117
r 2.0764 1 0 tcp 1040 ------- 3 1.1 0.1 26 101
+ 2.0764 0 1 ack 40 ------- 3 0.1 1.1 26 129
- 2.0764 0 1 ack 40 ------- 3 0.1 1.1 26 129
r 2.0768 0 1 ack 40 ------- 3 0.1 1.1 20 111
+ 2.0768 1 0 tcp 1040 ------- 3 1.1 0.1 40 130
- 2.08464 1 0 tcp 1040 ------- 3 1.1 0.1 34 118
r 2.08472 1 0 tcp 1040 ------- 3 1.1 0.1 27 102
+ 2.08472 0 1 ack 40 ------- 3 0.1 1.1 27 131
- 2.08472 0 1 ack 40 ------- 3 0.1 1.1 27 131
r 2.08512 0 1 ack 40 ------- 3 0.1 1.1 21 113
+ 2.08512 1 0 tcp 1040 ------- 3 1.1 0.1 41 132
- 2.09296 1 0 tcp 1040 ------- 3 1.1 0.1 35 122
r 2.09304 1 0 tcp 1040 ------- 3 1.1 0.1 28 103
+ 2.09304 0 1 ack 40 ------- 3 0.1 1.1 28 133
- 2.09304 0 1 ack 40 ------- 3 0.1 1.1 28 133
r 2.09344 0 1 ack 40 ------- 3 0.1 1.1 22 116
+ 2.09344 1 0 tcp 1040 ------- 3 1.1 0.1 42 134
- 2.10128 1 0 tcp 1040 ------- 3 1.1 0.1 36 123
r 2.10136 1 0 tcp 1040 ------- 3 1.1 0.1 29 104
+ 2.10136 0 1 ack 40 ------- 3 0.1 1.1 29 135
- 2.10136 0 1 ack 40 ------- 3 0.1 1.1 29 135
r 2.10176 0 1 ack 40 ------- 3 0.1 1.1 23 121
+ 2.10176 1 0 tcp 1040 ------- 3 1.1 0.1 43 136
- 2.1072 0 2 tcp 1040 ------- 1 0.0 2.0 21 32
- 2.1096 1 0 tcp 1040 ------- 3 1.1 0.1 37 125
r 2.10968 1 0 tcp 1040 ------- 3 1.1 0.1 30 105
+ 2.10968 0 1 ack 40 ------- 3 0.1 1.1 30 137
- 2.10968 0 1 ack 40 ------- 3 0.1 1.1 30 137
r 2.11008 0 1 ack 40 ------- 3 0.1 1.1 24 124
+ 2.11008 1 0 tcp 1040 ------- 3 1.1 0.1 44 138
r 2.1172 0 2 tcp 1040 ------- 1 0.0 2.0 19 29
+ 2.1172 2 0 ack 40 ------- 1 2.0 0.0 19 139
- 2.1172 2 0 ack 40 ------- 1 2.0 0.0 19 139
- 2.11792 1 0 tcp 1040 ------- 3 1.1 0.1 38 126
r 2.118 1 0 tcp 1040 ------- 3 1.1 0.1 31 114
+ 2.118 0 1 ack 40 ------- 3 0.1 1.1 31 140
- 2.118 0 1 ack 40 ------- 3 0.1 1.1 31 140
r 2.1184 0 1 ack 40 ------- 3 0.1 1.1 25 127
+ 2.1184 1 0 tcp 1040 ------- 3 1.1 0.1 45 141
- 2.12624 1 0 tcp 1040 ------- 3 1.1 0.1 39 128
r 2.12632 1 0 tcp 1040 ------- 3 1.1 0.1 32 115
+ 2.12632 0 1 ack 40 ------- 3 0.1 1.1 32 142
- 2.12632 0 1 ack 40 ------- 3 0.1 1.1 32 142
r 2.12672 0 1 ack 40 ------- 3 0.1 1.1 26 129
+ 2.12672 1 0 tcp 1040 ------- 3 1.1 0.1 46 143
r 2.1304 2 0 ack 40 ------- 1 2.0 0.0 19 139
+ 2.1304 0 2 tcp 1040 ------- 1 0.0 2.0 39 144
- 2.13456 1 0 tcp 1040 ------- 3 1.1 0.1 40 130
r 2.13464 1 0 tcp 1040 ------- 3 1.1 0.1 33 117
+ 2.13464 0 1 ack 40 ------- 3 0.1 1.1 33 145
- 2.13464 0 1 ack 40 ------- 3 0.1 1.1 33 145
r 2.13504 0 1 ack 40 ------- 3 0.1 1.1 27 131
+ 2.13504 1 0 tcp 1040 ------- 3 1.1 0.1 47 146
- 2.14288 1 0 tcp 1040 ------- 3 1.1 0.1 41 132
r 2.14296 1 0 tcp 1040 ------- 3 1.1 0.1 34 118
+ 2.14296 0 1 ack 40 ------- 3 0.1 1.1 34 147
- 2.14296 0 1 ack 40 ------- 3 0.1 1.1 34 147
r 2.14336 0 1 ack 40 ------- 3 0.1 1.1 28 133
+ 2.14336 1 0 tcp 1040 ------- 3 1.1 0.1 48 148
- 2.1512 1 0 tcp 1040 ------- 3 1.1 0.1 42 134
r 2.15128 1 0 tcp 1040 ------- 3 1.1 0.1 35 122
+ 2.15128 0 1 ack 40 ------- 3 0.1 1.1 35 149
- 2.15128 0 1 ack 40 ------- 3 0.1 1.1 35 149
r 2.15168 0 1 ack 40 ------- 3 0.1 1.1 29 135
+ 2.15168 1 0 tcp 1040 ------- 3 1.1 0.1 49 150
- 2.15952 1 0 tcp 1040 ------- 3 1.1 0.1 43 136
r 2.1596 1 0 tcp 1040 ------- 3 1.1 0.1 36 123
+ 2.1596 0 1 ack 40 ------- 3 0.1 1.1 36 151
- 2.1596 0 1 ack 40 ------- 3 0.1 1.1 36 151
r 2.16 0 1 ack 40 ------- 3 0.1 1.1 30 137
+ 2.16 1 0 tcp 1040 ------- 3 1.1 0.1 50 152
- 2.16784 1 0 tcp 1040 ------- 3 1.1 0.1 44 138
r 2.16792 1 0 tcp 1040 ------- 3 1.1 0.1 37 125
+ 2.16792 0 1 ack 40 ------- 3 0.1 1.1 37 153
- 2.16792 0 1 ack 40 ------- 3 0.1 1.1 37 153
r 2.16832 0 1 ack 40 ------- 3 0.1 1.1 31 140
+ 2.16832 1 0 tcp 1040 ------- 3 1.1 0.1 51 154
- 2.17616 1 0 tcp 1040 ------- 3 1.1 0.1 45 141
r 2.17624 1 0 tcp 1040 ------- 3 1.1 0.1 38 126
+ 2.17624 0 1 ack 40 ------- 3 0.1 1.1 38 155
- 2.17624 0 1 ack 40 ------- 3 0.1 1.1 38 155
r 2.17664 0 1 ack 40 ------- 3 0.1 1.1 32 142
+ 2.17664 1 0 tcp 1040 ------- 3 1.1 0.1 52 156
- 2.18448 1 0 tcp 1040 ------- 3 1.1 0.1 46 143
r 2.18456 1 0 tcp 1040 ------- 3 1.1 0.1 39 128
+ 2.18456 0 1 ack 40 ------- 3 0.1 1.1 39 157
- 2.18456 0 1 ack 40 ------- 3 0.1 1.1 39 157
r 2.18496 0 1 ack 40 ------- 3 0.1 1.1 33 145
+ 2.18496 1 0 tcp 1040 ------- 3 1.1 0.1 53 158
- 2.1904 0 2 tcp 1040 ------- 1 0.0 2.0 23 35
- 2.1928 1 0 tcp 1040 ------- 3 1.1 0.1 47 146
r 2.19288 1 0 tcp 1040 ------- 3 1.1 0.1 40 130
+ 2.19288 0 1 ack 40 ------- 3 0.1 1.1 40 159
- 2.19288 0 1 ack 40 ------- 3 0.1 1.1 40 159
r 2.19328 0 1 ack 40 ------- 3 0.1 1.1 34 147
+ 2.19328 1 0 tcp 1040 ------- 3 1.1 0.1 54 160
r 2.2004 0 2 tcp 1040 ------- 1 0.0 2.0 21 32
+ 2.2004 2 0 ack 40 ------- 1 2.0 0.0 19 161
- 2.2004 2 0 ack 40 ------- 1 2.0 0.0 19 161
- 2.20112 1 0 tcp 1040 ------- 3 1.1 0.1 48 148
r 2.2012 1 0 tcp 1040 ------- 3 1.1 0.1 41 132
+ 2.2012 0 1 ack 40 ------- 3 0.1 1.1 41 162
- 2.2012 0 1 ack 40 ------- 3 0.1 1.1 41 162
r 2.2016 0 1 ack 40 ------- 3 0.1 1.1 35 149
+ 2.2016 1 0 tcp 1040 ------- 3 1.1 0.1 55 163
- 2.20944 1 0 tcp 1040 ------- 3 1.1 0.1 49 150
r 2.20952 1 0 tcp 1040 ------- 3 1.1 0.1 42 134
+ 2.20952 0 1 ack 40 ------- 3 0.1 1.1 42 164
- 2.20952 0 1 ack 40 ------- 3 0.1 1.1 42 164
r 2.20992 0 1 ack 40 ------- 3 0.1 1.1 36 151
+ 2.20992 1 0 tcp 1040 ------- 3 1.1 0.1 56 165
r 2.2136 2 0 ack 40 ------- 1 2.0 0.0 19 161
- 2.21776 1 0 tcp 1040 ------- 3 1.1 0.1 50 152
r 2.21784 1 0 tcp 1040 ------- 3 1.1 0.1 43 136
+ 2.21784 0 1 ack 40 ------- 3 0.1 1.1 43 166
- 2.21784 0 1 ack 40 ------- 3 0.1 1.1 43 166
r 2.21824 0 1 ack 40 ------- 3 0.1 1.1 37 153
+ 2.21824 1 0 tcp 1040 ------- 3 1.1 0.1 57 167
- 2.22608 1 0 tcp 1040 ------- 3 1.1 0.1 51 154
r 2.22616 1 0 tcp 1040 ------- 3 1.1 0.1 44 138
+ 2.22616 0 1 ack 40 ------- 3 0.1 1.1 44 168
- 2.22616 0 1 ack 40 ------- 3 0.1 1.1 44 168
r 2.22656 0 1 ack 40 ------- 3 0.1 1.1 38 155
+ 2.22656 1 0 tcp 1040 ------- 3 1.1 0.1 58 169
- 2.2344 1 0 tcp 1040 ------- 3 1.1 0.1 52 156
r 2.23448 1 0 tcp 1040 ------- 3 1.1 0.1 45 141
+ 2.23448 0 1 ack 40 ------- 3 0.1 1.1 45 170
- 2.23448 0 1 ack 40 ------- 3 0.1 1.1 45 170
r 2.23488 0 1 ack 40 ------- 3 0.1 1.1 39 157
+ 2.23488 1 0 tcp 1040 ------- 3 1.1 0.1 59 171
- 2.24272 1 0 tcp 1040 ------- 3 1.1 0.1 53 158
r 2.2428 1 0 tcp 1040 ------- 3 1.1 0.1 46 143
+ 2.2428 0 1 ack 40 ------- 3 0.1 1.1 46 172
- 2.2428 0 1 ack 40 ------- 3 0.1 1.1 46 172
r 2.2432 0 1 ack 40 ------- 3 0.1 1.1 40 159
+ 2.2432 1 0 tcp 1040 ------- 3 1.1 0.1 60 173
- 2.25104 1 0 tcp 1040 ------- 3 1.1 0.1 54 160
r 2.25112 1 0 tcp 1040 ------- 3 1.1 0.1 47 146
+ 2.25112 0 1 ack 40 ------- 3 0.1 1.1 47 174
- 2.25112 0 1 ack 40 ------- 3 0.1 1.1 47 174
r 2.25152 0 1 ack 40 ------- 3 0.1 1.1 41 162
+ 2.25152 1 0 tcp 1040 ------- 3 1.1 0.1 61 175
- 2.25936 1 0 tcp 1040 ------- 3 1.1 0.1 55 163
r 2.25944 1 0 tcp 1040 ------- 3 1.1 0.1 48 148
+ 2.25944 0 1 ack 40 ------- 3 0.1 1.1 48 176
- 2.25944 0 1 ack 40 ------- 3 0.1 1.1 48 176
r 2.25984 0 1 ack 40 ------- 3 0.1 1.1 42 164
+ 2.25984 1 0 tcp 1040 ------- 3 1.1 0.1 62 177
- 2.26768 1 0 tcp 1040 ------- 3 1.1 0.1 56 165
r 2.26776 1 0 tcp 1040 ------- 3 1.1 0.1 49 150
+ 2.26776 0 1 ack 40 ------- 3 0.1 1.1 49 178
- 2.26776 0 1 ack 40 ------- 3 0.1 1.1 49 178
r 2.26816 0 1 ack 40 ------- 3 0.1 1.1 43 166
+ 2.26816 1 0 tcp 1040 ------- 3 1.1 0.1 63 179
- 2.2736 0 2 tcp 1040 ------- 1 0.0 2.0 25 41
- 2.276 1 0 tcp 1040 ------- 3 1.1 0.1 57 167
r 2.27608 1 0 tcp 1040 ------- 3 1.1 0.1 50 152
+ 2.27608 0 1 ack 40 ------- 3 0.1 1.1 50 180
- 2.27608 0 1 ack 40 ------- 3 0.1 1.1 50 180
r 2.27648 0 1 ack 40 ------- 3 0.1 1.1 44 168
+ 2.27648 1 0 tcp 1040 ------- 3 1.1 0.1 64 181
r 2.2836 0 2 tcp 1040 ------- 1 0.0 2.0 23 35
+ 2.2836 2 0 ack 40 ------- 1 2.0 0.0 19 182
- 2.2836 2 0 ack 40 ------- 1 2.0 0.0 19 182
- 2.28432 1 0 tcp 1040 ------- 3 1.1 0.1 58 169
r 2.2844 1 0 tcp 1040 ------- 3 1.1 0.1 51 154
+ 2.2844 0 1 ack 40 ------- 3 0.1 1.1 51 183
- 2.2844 0 1 ack 40 ------- 3 0.1 1.1 51 183
r 2.2848 0 1 ack 40 ------- 3 0.1 1.1 45 170
+ 2.2848 1 0 tcp 1040 ------- 3 1.1 0.1 65 184
- 2.29264 1 0 tcp 1040 ------- 3 1.1 0.1 59 171
r 2.29272 1 0 tcp 1040 ------- 3 1.1 0.1 52 156
+ 2.29272 0 1 ack 40 ------- 3 0.1 1.1 52 185
- 2.29272 0 1 ack 40 ------- 3 0.1 1.1 52 185
r 2.29312 0 1 ack 40 ------- 3 0.1 1.1 46 172
+ 2.29312 1 0 tcp 1040 ------- 3 1.1 0.1 66 186
+ 2.294 2 1 tcp 1040 ---A--- 2 2.1 1.0 1 187
r 2.2968 2 0 ack 40 ------- 1 2.0 0.0 19 182
- 2.30096 1 0 tcp 1040 ------- 3 1.1 0.1 60 173
r 2.30104 1 0 tcp 1040 ------- 3 1.1 0.1 53 158
+ 2.30104 0 1 ack 40 ------- 3 0.1 1.1 53 188
- 2.30104 0 1 ack 40 ------- 3 0.1 1.1 53 188
r 2.30144 0 1 ack 40 ------- 3 0.1 1.1 47 174
+ 2.30144 1 0 tcp 1040 ------- 3 1.1 0.1 67 189
- 2.30928 1 0 tcp 1040 ------- 3 1.1 0.1 61 175
r 2.30936 1 0 tcp 1040 ------- 3 1.1 0.1 54 160
+ 2.30936 0 1 ack 40 ------- 3 0.1 1.1 54 190
- 2.30936 0 1 ack 40 ------- 3 0.1 1.1 54 190
r 2.30976 0 1 ack 40 ------- 3 0.1 1.1 48 176
+ 2.30976 1 0 tcp 1040 ------- 3 1.1 0.1 68 191
- 2.3176 1 0 tcp 1040 ------- 3 1.1 0.1 62 177
r 2.31768 1 0 tcp 1040 ------- 3 1.1 0.1 55 163
+ 2.31768 0 1 ack 40 ------- 3 0.1 1.1 55 192
- 2.31768 0 1 ack 40 ------- 3 0.1 1.1 55 192
r 2.31808 0 1 ack 40 ------- 3 0.1 1.1 49 178
+ 2.31808 1 0 tcp 1040 ------- 3 1.1 0.1 69 193
- 2.32592 1 0 tcp 1040 ------- 3 1.1 0.1 63 179
r 2.326 1 0 tcp 1040 ------- 3 1.1 0.1 56 165
+ 2.326 0 1 ack 40 ------- 3 0.1 1.1 56 194
- 2.326 0 1 ack 40 ------- 3 0.1 1.1 56 194
r 2.3264 0 1 ack 40 ------- 3 0.1 1.1 50 180
+ 2.3264 1 0 tcp 1040 ------- 3 1.1 0.1 70 195
- 2.33424 1 0 tcp 1040 ------- 3 1.1 0.1 64 181
r 2.33432 1 0 tcp 1040 ------- 3 1.1 0.1 57 167
+ 2.33432 0 1 ack 40 ------- 3 0.1 1.1 57 196
- 2.33432 0 1 ack 40 ------- 3 0.1 1.1 57 196
r 2.33472 0 1 ack 40 ------- 3 0.1 1.1 51 183
+ 2.33472 1 0 tcp 1040 ------- 3 1.1 0.1 71 197
- 2.34256 1 0 tcp 1040 ------- 3 1.1 0.1 65 184
r 2.34264 1 0 tcp 1040 ------- 3 1.1 0.1 58 169
+ 2.34264 0 1 ack 40 ------- 3 0.1 1.1 58 198
- 2.34264 0 1 ack 40 ------- 3 0.1 1.1 58 198
r 2.34304 0 1 ack 40 ------- 3 0.1 1.1 52 185
+ 2.34304 1 0 tcp 1040 ------- 3 1.1 0.1 72 199
- 2.35088 1 0 tcp 1040 ------- 3 1.1 0.1 66 186
r 2.35096 1 0 tcp 1040 ------- 3 1.1 0.1 59 171
+ 2.35096 0 1 ack 40 ------- 3 0.1 1.1 59 200
- 2.35096 0 1 ack 40 ------- 3 0.1 1.1 59 200
r 2.35136 0 1 ack 40 ------- 3 0.1 1.1 53 188
+ 2.35136 1 0 tcp 1040 ------- 3 1.1 0.1 73 201
- 2.3568 0 2 tcp 1040 ------- 1 0.0 2.0 27 49
- 2.3592 1 0 tcp 1040 ------- 3 1.1 0.1 67 189
r 2.35928 1 0 tcp 1040 ------- 3 1.1 0.1 60 173
+ 2.35928 0 1 ack 40 ------- 3 0.1 1.1 60 202
- 2.35928 0 1 ack 40 ------- 3 0.1 1.1 60 202
r 2.35968 0 1 ack 40 ------- 3 0.1 1.1 54 190
+ 2.35968 1 0 tcp 1040 ------- 3 1.1 0.1 74 203
r 2.3668 0 2 tcp 1040 ------- 1 0.0 2.0 25 41
+ 2.3668 2 0 ack 40 ------- 1 2.0 0.0 19 204
- 2.3668 2 0 ack 40 ------- 1 2.0 0.0 19 204
- 2.36752 1 0 tcp 1040 ------- 3 1.1 0.1 68 191
r 2.3676 1 0 tcp 1040 ------- 3 1.1 0.1 61 175
+ 2.3676 0 1 ack 40 ------- 3 0.1 1.1 61 205
- 2.3676 0 1 ack 40 ------- 3 0.1 1.1 61 205
r 2.368 0 1 ack 40 ------- 3 0.1 1.1 55 192
+ 2.368 1 0 tcp 1040 ------- 3 1.1 0.1 75 206
- 2.37584 1 0 tcp 1040 ------- 3 1.1 0.1 69 193
r 2.37592 1 0 tcp 1040 ------- 3 1.1 0.1 62 177
+ 2.37592 0 1 ack 40 ------- 3 0.1 1.1 62 207
- 2.37592 0 1 ack 40 ------- 3 0.1 1.1 62 207
r 2.37632 0 1 ack 40 ------- 3 0.1 1.1 56 194
+ 2.37632 1 0 tcp 1040 ------- 3 1.1 0.1 76 208
r 2.38 2 0 ack 40 ------- 1 2.0 0.0 19 204
+ 2.38 0 2 tcp 1040 ---A--- 1 0.0 2.0 20 209
- 2.38416 1 0 tcp 1040 ------- 3 1.1 0.1 70 195
r 2.38424 1 0 tcp 1040 ------- 3 1.1 0.1 63 179
+ 2.38424 0 1 ack 40 ------- 3 0.1 1.1 63 210
- 2.38424 0 1 ack 40 ------- 3 0.1 1.1 63 210
r 2.38464 0 1 ack 40 ------- 3 0.1 1.1 57 196
+ 2.38464 1 0 tcp 1040 ------- 3 1.1 0.1 77 211
- 2.39248 1 0 tcp 1040 ------- 3 1.1 0.1 71 197
r 2.39256 1 0 tcp 1040 ------- 3 1.1 0.1 64 181
+ 2.39256 0 1 ack 40 ------- 3 0.1 1.1 64 212
- 2.39256 0 1 ack 40 ------- 3 0.1 1.1 64 212
r 2.39296 0 1 ack 40 ------- 3 0.1 1.1 58 198
+ 2.39296 1 0 tcp 1040 ------- 3 1.1 0.1 78 213
- 2.4008 1 0 tcp 1040 ------- 3 1.1 0.1 72 199
r 2.40088 1 0 tcp 1040 ------- 3 1.1 0.1 65 184
+ 2.40088 0 1 ack 40 ------- 3 0.1 1.1 65 214
- 2.40088 0 1 ack 40 ------- 3 0.1 1.1 65 214
r 2.40128 0 1 ack 40 ------- 3 0.1 1.1 59 200
+ 2.40128 1 0 tcp 1040 ------- 3 1.1 0.1 79 215
- 2.406 2 1 tcp 1040 ------- 2 2.1 1.0 2 45
- 2.40912 1 0 tcp 1040 ------- 3 1.1 0.1 73 201
r 2.4092 1 0 tcp 1040 ------- 3 1.1 0.1 66 186
+ 2.4092 0 1 ack 40 ------- 3 0.1 1.1 66 216
- 2.4092 0 1 ack 40 ------- 3 0.1 1.1 66 216
r 2.4096 0 1 ack 40 ------- 3 0.1 1.1 60 202
+ 2.4096 1 0 tcp 1040 ------- 3 1.1 0.1 80 217
r 2.411 2 1 tcp 1040 ------- 2 2.1 1.0 1 44
+ 2.411 1 2 ack 40 ------- 2 1.0 2.1 1 218
- 2.411 1 2 ack 40 ------- 2 1.0 2.1 1 218
- 2.41744 1 0 tcp 1040 ------- 3 1.1 0.1 74 203
r 2.41752 1 0 tcp 1040 ------- 3 1.1 0.1 67 189
+ 2.41752 0 1 ack 40 ------- 3 0.1 1.1 67 219
- 2.41752 0 1 ack 40 ------- 3 0.1 1.1 67 219
r 2.41792 0 1 ack 40 ------- 3 0.1 1.1 61 205
+ 2.41792 1 0 tcp 1040 ------- 3 1.1 0.1 81 220
- 2.42576 1 0 tcp 1040 ------- 3 1.1 0.1 75 206
r 2.42584 1 0 tcp 1040 ------- 3 1.1 0.1 68 191
+ 2.42584 0 1 ack 40 ------- 3 0.1 1.1 68 221
- 2.42584 0 1 ack 40 ------- 3 0.1 1.1 68 221
r 2.42624 0 1 ack 40 ------- 3 0.1 1.1 62 207
+ 2.42624 1 0 tcp 1040 ------- 3 1.1 0.1 82 222
- 2.43408 1 0 tcp 1040 ------- 3 1.1 0.1 76 208
r 2.43416 1 0 tcp 1040 ------- 3 1.1 0.1 69 193
+ 2.43416 0 1 ack 40 ------- 3 0.1 1.1 69 223
- 2.43416 0 1 ack 40 ------- 3 0.1 1.1 69 223
r 2.43456 0 1 ack 40 ------- 3 0.1 1.1 63 210
+ 2.43456 1 0 tcp 1040 ------- 3 1.1 0.1 83 224
- 2.44 0 2 tcp 1040 ------- 1 0.0 2.0 29 56
- 2.4424 1 0 tcp 1040 ------- 3 1.1 0.1 77 211
r 2.44248 1 0 tcp 1040 ------- 3 1.1 0.1 70 195
+ 2.44248 0 1 ack 40 ------- 3 0.1 1.1 70 225
- 2.44248 0 1 ack 40 ------- 3 0.1 1.1 70 225
r 2.44288 0 1 ack 40 ------- 3 0.1 1.1 64 212
+ 2.44288 1 0 tcp 1040 ------- 3 1.1 0.1 84 226
r 2.448 1 2 ack 40 ------- 2 1.0 2.1 1 218
+ 2.448 2 1 tcp 1040 ------- 2 2.1 1.0 2 227
+ 2.448 2 1 tcp 1040 ------- 2 2.1 1.0 3 228
r 2.45 0 2 tcp 1040 ------- 1 0.0 2.0 27 49
+ 2.45 2 0 ack 40 ------- 1 2.0 0.0 19 229
- 2.45 2 0 ack 40 ------- 1 2.0 0.0 19 229
- 2.45072 1 0 tcp 1040 ------- 3 1.1 0.1 78 213
r 2.4508 1 0 tcp 1040 ------- 3 1.1 0.1 71 197
+ 2.4508 0 1 ack 40 ------- 3 0.1 1.1 71 230
- 2.4508 0 1 ack 40 ------- 3 0.1 1.1 71 230
r 2.4512 0 1 ack 40 ------- 3 0.1 1.1 65 214
+ 2.4512 1 0 tcp 1040 ------- 3 1.1 0.1 85 231
- 2.45904 1 0 tcp 1040 ------- 3 1.1 0.1 79 215
r 2.45912 1 0 tcp 1040 ------- 3 1.1 0.1 72 199
+ 2.45912 0 1 ack 40 ------- 3 0.1 1.1 72 232
- 2.45912 0 1 ack 40 ------- 3 0.1 1.1 72 232
r 2.45952 0 1 ack 40 ------- 3 0.1 1.1 66 216
+ 2.45952 1 0 tcp 1040 ------- 3 1.1 0.1 86 233
r 2.4632 2 0 ack 40 ------- 1 2.0 0.0 19 229
- 2.46736 1 0 tcp 1040 ------- 3 1.1 0.1 80 217
r 2.46744 1 0 tcp 1040 ------- 3 1.1 0.1 73 201
+ 2.46744 0 1 ack 40 ------- 3 0.1 1.1 73 234
- 2.46744 0 1 ack 40 ------- 3 0.1 1.1 73 234
r 2.46784 0 1 ack 40 ------- 3 0.1 1.1 67 219
+ 2.46784 1 0 tcp 1040 ------- 3 1.1 0.1 87 235
- 2.47568 1 0 tcp 1040 ------- 3 1.1 0.1 81 220
r 2.47576 1 0 tcp 1040 ------- 3 1.1 0.1 74 203
+ 2.47576 0 1 ack 40 ------- 3 0.1 1.1 74 236
- 2.47576 0 1 ack 40 ------- 3 0.1 1.1 74 236
r 2.47616 0 1 ack 40 ------- 3 0.1 1.1 68 221